TITLE = "2D porous media"
VARIABLES = "X", "value" 
ZONE  t = "solid"  I = 100, F = point
4.12408,1.59783
1.10436,1.96951
2.37308,0.97267
14.9254,1.01976
7.01343,1.41262
10.2342,1.90183
18.0357,0.526398
19.1446,1.16904
16.5022,3.42384
8.94462,1.95465
19.2438,0.495255
14.759,0.831813
10.8531,1.58177
6.7989,1.17526
8.25172,3.58193
2.09904,2.47516
5.8988,0.64068
2.22333,1.65438
8.06675,3.42974
13.3707,3.01604
4.21178,0.720976
4.58933,0.449498
6.23687,0.746789
8.09268,0.547811
0.85315,3.40746
12.5123,0.0193969
19.5136,1.45426
4.25605,2.07333
15.1801,2.21099
16.2429,0.68637
8.9646,3.66839
15.8076,2.97268
1.54536,3.6062
3.13527,1.92242
15.1797,3.30119
4.69231,3.87829
0.110849,1.85633
1.63894,1.26954
13.0156,1.94632
9.08677,2.77375
6.76892,0.319811
13.9657,1.2565
8.87035,3.64435
16.6491,0.810095
9.27672,2.57841
7.48232,3.64826
11.234,0.657995
13.1047,2.55587
1.32096,3.248
2.39149,3.30012
12.746,1.41676
15.8921,2.57136
16.3654,3.5062
19.2045,1.8762
7.26263,1.65826
3.24975,2.80631
9.89035,3.44309
0.314048,3.75214
15.4372,3.39263
2.81118,0.94279
9.85522,2.0587
2.95527,0.217844
13.5835,3.212
13.8686,2.98089
12.3,3.25201
11.4051,1.00919
3.34386,1.45943
17.9027,3.94186
4.82814,3.42146
9.09031,2.41816
5.39857,2.46801
6.12233,3.05779
9.55552,1.28728
14.0496,0.998551
3.39955,3.37216
9.70671,2.65095
7.15432,2.5324
14.344,0.147561
8.72196,1.64251
15.6422,0.204388
4.47265,1.40946
6.06788,1.5633
14.3444,0.794126
7.52581,3.83451
1.0779,3.32322
11.2633,1.2953
8.95617,3.47714
1.76541,3.70234
3.82205,3.16301
3.50445,1.44432
12.6759,2.64223
0.476369,3.96604
5.87313,2.96407
0.567982,2.91902
3.03293,3.24204
15.617,1.50111
3.25752,0.336984
15.3221,3.52039
5.65555,0.569578
16.7745,1.34669
